% Model:              Ben4Bif.mph
% Version:            COMSOL 6.0.0.405
% Date:               Jan 25 2023, 16:54
% Dimension:          2
% Nodes:              18680
% Expressions:        2
% Description:        Velocity field, x component, Velocity field, y component
% Length unit:        m
% x                       y                        u (m/s)                  v (m/s)
-0.0034478995871288624    0.016509869988043803     -1.792208825520675E-5    2.086921986058783E-4
-0.0033720758537349946    0.016400693114083712     -4.174789723893356E-5    1.4548034155920962E-4
-0.0033519541031227437    0.016541972853688816     -1.2084487800445626E-5   1.0655421587648636E-4
-0.0036004442926385015    0.016458829313888444     -6.164895793997415E-5    3.0579192398705036E-4
-0.003485578228975382     0.01631126213749742      -8.582305448352753E-5    2.595509252146799E-4
-0.003675936927527017     0.016259270781553092     -1.1024047730811507E-4   3.354619168232352E-4
-0.0038204047375304836    0.016385231679953587     -1.2296605093522144E-4   3.1790337381533954E-4
-0.0038893384758922622    0.01616850626354094      -9.032009440695139E-5    2.776560282908473E-4
-0.004040365182422464     0.016311634046018732     -1.2021138668086023E-4   2.025541533912314E-4
-0.0041600181434293705    0.016271598780461177     -5.5647162188630044E-5   9.502697101408543E-5
-0.004041820825419266     0.01617916293916354      -6.165697403163412E-5    1.644561854766177E-4
0.002392382965645822      0.01408007024173565      1.72470262919531E-4      1.4499335107115899E-4
0.002345622369969038      0.014173857620250984     9.237718994933914E-5     7.531254922354425E-5
0.002276921341189091      0.014042864085206348     1.6376229942248962E-4    9.125074784900452E-5
-0.011747569857746373     0.013073464774362697     -1.4747027454220746E-4   1.7635886507556223E-4
-0.011845284001440597     0.013024746313817436     -7.537970437075074E-5    9.235735264999532E-5
-0.011717130562153972     0.012954189478826397     -8.970458858365788E-5    1.6047734660295E-4
0.002320765357741958      0.013923968692152379     2.554757379319502E-4     1.3502268825440458E-4
0.0024830076472011748     0.013898304992836494     2.8593665303211887E-4    1.726943049327988E-4
0.0023948075383040464     0.013730198098406723     3.1238047508158775E-4    1.5862619861244573E-4
0.002610774339703738      0.013642044289182973     2.9088088748585605E-4    1.038388325630674E-4
-0.011596470180475035     0.012999404401885113     -1.3400705969110894E-4   2.525688364813845E-4
-0.01153363684618092      0.013180127807872932     -1.6914977747979124E-4   2.954652894337426E-4
-0.011389885321807389     0.01308322046316711      -1.5880674950320068E-4   3.159086948242931E-4
-0.011319703834615471     0.013286790841383168     -1.0474865225708835E-4   2.91035529313502E-4
-0.011189838448605181     0.013176715649316426     -1.1827439428852754E-4   2.4171195292834922E-4
-0.011169714472477367     0.013361572756725955     -4.700305774421585E-5    1.9565212802946985E-4
-0.011087211597272011     0.013241364690566084     -6.867392148661822E-5    1.426613615113049E-4
-0.011093376199554233     0.013399633604387246     -2.8401582340924442E-5   1.0791058514184066E-4
0.009466508721474148      0.011149687451333833     1.7293750925691565E-4    1.4518192482277333E-4
0.00941973287193998       0.01124350521413647      9.264056748817369E-5     7.562748844451027E-5
0.009350404247183131      0.011112124958226718     1.641917022971129E-4     9.143279188244189E-5
0.0024856595624920008     0.013527429299073883     2.500010167804197E-4     1.2282804141057512E-4
0.0026822614601574664     0.013498663104064883     1.9515873830316163E-4    4.701951624216732E-5
0.002562136861711951      0.013416440393675049     1.4314869661051697E-4    6.863104429766585E-5
0.002720241672120609      0.013422486475775087     1.0805765679008785E-4    2.851746091788163E-5
-0.01418455401781447      0.007242417420434194     -2.0042659372229214E-4   -1.7007615171780834E-5
-0.014054907048261489     0.007309142007044431     -1.483985931327276E-4    -4.580238179793356E-5
-0.014212586574757853     0.007326197753231412     -1.0822109969782884E-4   -1.1812687366181771E-5
0.009393818400534413      0.010993062453244015     2.5576879197524767E-4    1.350847711854545E-4
0.009557038822061976      0.010968112309716284     2.855762946365424E-4     1.7256807258851493E-4
0.009472958766431963      0.010794934054723452     3.1224356963248254E-4    1.580904685899331E-4
0.009684913102478994      0.010711636392588186     2.9065105374105653E-4    1.0368467906111084E-4
0.009568072890076685      0.01059282060306368      2.458652104736779E-4     1.1998623267256065E-4
0.009756539031678769      0.010567977121765658     1.951447992346349E-4     4.682918799288489E-5
0.009636397810994369      0.010485717867642208     1.4256074191539608E-4    6.847344329754587E-5
0.009794452629392911      0.010491934271603384     1.0764289820372427E-4    2.841735692897181E-5
0.003632942322638503      0.01358200440826576      -1.696878001273849E-5    2.0497955970748475E-4
0.0036977475024313903     0.013459281187565978     -4.612073267722671E-5    1.5291545035149538E-4
0.003720907319601903      0.013611437136736407     -1.1811364638144414E-5   1.0775470069380312E-4
0.012899042090250615      0.002863195003741731     2.235943212071492E-4     2.1373964867072636E-5
0.012787974293173413      0.0027725156675763524    1.4857037544478905E-4    4.382245065502516E-5
0.01293641867864661       0.0027514880021361496    1.0777325026760136E-4    1.1665698613345434E-5
-0.014126116246232067     0.007067765641041057     -3.124032522221534E-4    -6.634866052637492E-5
-0.013989298138080962     0.007187372528429818     -2.639323140235942E-4    -8.541163072719466E-5
-0.013931021967063185     0.006979849861631887     -3.327045192536542E-4    -1.0939103477494412E-4
-0.014035128539027046     0.006795832531068674     -2.9967195156632665E-4   -1.3138058261824004E-4
0.003448017153977529      0.013520129202621722     -7.166163613878155E-5    3.182872430938482E-4
0.003581990408374368      0.013387704163923231     -8.549659430986403E-5    2.6391095310583467E-4
0.0033744516637281715     0.013327488947104947     -1.0735612503844304E-4   3.3156343519447296E-4
0.003153888341070014      0.013421714903928534     -1.3316310658390316E-4   2.8462546814786454E-4
0.012836525980345629      0.0030500362187702995    3.218844356620179E-4     7.796397333564604E-5
0.012696275006245806      0.002891276494925881     2.659781577914559E-4     8.844757769848122E-5
0.012646792020990151      0.0031013086049482175    3.3579069173164623E-4    1.1032084026836037E-4
0.012756739497030399      0.0032884932102262903    2.946841723751894E-4     1.3128018747571359E-4
-0.013970778792128775     0.006603511751289568     -1.7427249247320607E-4   -1.0830979418870283E-4
-0.013854986725976735     0.006770050821609035     -2.6993037842330163E-4   -9.068348580900281E-5
-0.013943367730941023     0.006521588870216927     -9.746840007166279E-5    -5.676297139010399E-5
-0.013842559703393527     0.006631674665458095     -1.5867707522312E-4      -5.795936573664994E-5
0.002998162749640804      0.013369609757487452     -1.0690990533263787E-4   1.736117324286885E-4
0.0031661065972071814     0.013252637086368417     -9.170070689701643E-5    2.7160629220628714E-4
0.00291634090076761       0.013342232501260718     -5.661657989060969E-5    9.76619399269242E-5
0.0030262934095456598     0.013241079128661563     -5.802640921451428E-5    1.5861580534531666E-4
0.012695018747113493      0.0034729573415434156    1.7519334278667865E-4    1.0902182931461915E-4
0.012666440432126249      0.003558369039484975     9.533312417011973E-5     5.527532175512399E-5
0.012571204142279588      0.00344757471358456      1.585112255645811E-4     5.8796388578845835E-5
0.012574978570775865      0.003312718425708187     2.6609869570137383E-4    8.884154140467033E-5
0.010474684028045033      -0.0029935741707392514   1.4511981728312E-4       -1.731059772977694E-4
0.010568459036422354      -0.00294681963779275     7.558538174324162E-5     -9.269729533272385E-5
0.010437412823603812      -0.0028777848505192544   9.140402434759383E-5     -1.6405704436209774E-4
0.010317806703328861      -0.0029214373654028215   1.3520075966696655E-4    -2.5583863031731943E-4
0.010293093964917385      -0.0030841117109237006   1.718362085616628E-4     -2.8453802282294474E-4
0.010109146087923494      -0.0030031110487005637   1.567474611184104E-4     -3.1214365034268527E-4
0.010036284389933602      -0.003212152347147841    1.0357542149703527E-4    -2.911049826810314E-4
0.009913816281650037      -0.0030989520868190032   1.1820308066892055E-4    -2.4262750198652405E-4
0.009892254813360838      -0.00328396290413597     4.656642553074069E-5     -1.9477498279231684E-4
0.009809795279989209      -0.0031639745236321003   6.815241166081238E-5     -1.416891376938651E-4
0.009816334709712809      -0.003321815302645295    2.83144898711728E-5      -1.0707687770052008E-4
-0.0018655839619809442    0.01216007993980948      0                        0
-0.0018761879469667438    0.012156668788476498     -7.0187198227509E-6      2.147422252160109E-5
-0.0018510839999999998    0.012115005000000002     0                        0
-0.001808958174234689     0.012136624770788198     0                        0
-0.0018039131177993264    0.01212679454777361      2.0048541012855733E-5    1.019066200951926E-5
-0.009831087946794492     0.008813749039030377     0                        0
-0.009827688570171467     0.008803181654809686     -2.148267338737032E-5    -7.01153283354239E-6
-0.009786013              0.008828249              0                        0
-0.009807632781603026     0.00887037481697313      0                        0
-0.009797661370915117     0.008875492337221678     -1.0364360751436698E-5   2.039369956368694E-5
0.005208427039030379      0.009229927946794489     0                        0
0.0051978581344688714     0.00922652808109953      -7.021634674010393E-6    2.142794170256806E-5
0.005222927               0.009184853              0                        0
0.005265052816973127      0.009206472781603027     0                        0
0.005270079062373059      0.009196679218575086     2.002216730552575E-5     1.0146874627690613E-5
0.008531302772197448      0.0012077981816176232    0                        0
0.008509683               0.001249924              0                        0
0.00852136284042654       0.001202696819346283     1.0330098406514314E-5    -2.035137027536873E-5
0.008554757939809483      0.001264423961980945     0                        0
0.008551343006613525      0.0012750397033546347    2.1539523587851764E-5    7.0241916540357465E-6
-0.004469792754077009     0.007130872088215395     0                        0
-0.0044740711500311755    0.007120749514665243     -3.730044409720564E-5    1.581254225425634E-5
-0.004427328              0.007112924              0                        0
-0.0044099921019733115    0.007155642332294409     0                        0
-0.0043997122298982515    0.007151470567985062     1.52586528712118E-5      3.784586711864945E-5
0.0035255500885529156     0.003868632764599052     0                        0
0.0035154480534095897     0.003872902478834804     1.5770643828184257E-5    3.721526935807466E-5
0.003507602               0.003826168              0                        0
0.0035503203322944095     0.003808832101973312     0                        0
0.0035462103461102        0.0037987044607474462    3.72702161174372E-5      -1.5054306324424155E-5
-0.011771991106734304     -0.020061288792357395    -1.318845801022007E-4    -1.5742785213047715E-4
-0.011728196075843593     -0.01991496221580941     -7.136881183980843E-5    -1.3692882188446996E-4
-0.01185422556035973      -0.020020288218305916    -6.861369187655738E-5    -8.493863247699693E-5
-0.0034627147607396514    -0.023504912907125804    -1.9697075172949576E-5   -2.266624873521455E-4
-0.003363250219093121     -0.023538193231364076    -1.2162584259521184E-5   -1.1987553140734872E-4
-0.0034047879948009272    -0.023398648303321484    -5.076437939338916E-5    -1.7887064537595634E-4
-0.011596966817490596     -0.020148552658238117    -1.7385181819867164E-4   -2.7143528442588935E-4
-0.011616889444846044     -0.01995294374844242     -1.1997063312716206E-4   -2.3423299821018274E-4
-0.011418667788463047     -0.02006141188964451     -1.6077100865342388E-4   -3.180999076316084E-4
-0.011388698021285745     -0.020252391618977184    -1.2966015854856642E-4   -3.1123378784922613E-4
-0.003509744349173853     -0.02335353405064782     -8.13947843011031E-5     -2.686959456338894E-4
-0.003664924685402116     -0.023437254505995497    -8.228468131431836E-5    -3.259605104913108E-4
-0.0037149215814613877    -0.023260654391948646    -1.0979111183506353E-4   -3.3543972106174106E-4
-0.003926929643271669     -0.02334958899419009     -1.3292815081133243E-4   -2.7975742385169864E-4
-0.00392334857237531      -0.023182771676839506    -9.00471545788902E-5     -2.6234554404824573E-4
-0.004079325630958281     -0.023298598080253682    -1.0486830413452429E-4   -1.71145240708995E-4
-0.004052454188369924     -0.023154459589811785    -5.222063284466127E-5    -1.4898638308353832E-4
-0.004159757773092799     -0.023271685899037102    -5.5994591947332324E-5   -9.625502982277388E-5
0.0023818151528636404     -0.021101266025132688    1.569013728462706E-4     -1.3186275698136456E-4
0.002240810896874492      -0.021058520039646637    1.3797490110609877E-4    -7.27672431148257E-5
0.0023413555431528532     -0.021182415563020467    8.575369411944321E-5     -6.911902140665199E-5
-0.011205425344320022     -0.020159979647746334    -1.265587919366427E-4    -2.5347362125091724E-4
-0.01118042922508089      -0.020356230579716243    -4.920572706977671E-5    -2.0991642676174954E-4
-0.011094502310234037     -0.020399072146479014    -2.8805403952489625E-5   -1.0932930723754181E-4
-0.011106318177732333     -0.020256103656555866    -7.092849307243187E-5    -1.562130245092719E-4
-0.014176105044162762     -0.014217166144720569    -2.2554294660713918E-4   1.95697336218304E-5
-0.014209357626251126     -0.014316547460501244    -1.1932736279952814E-4   1.2203362606802526E-5
-0.014070054369003254     -0.014275470538332757    -1.7792814544969287E-4   5.0454071989091854E-5
0.002466550685539019      -0.020931312598284665    2.6901591672241044E-4    -1.7317154432412363E-4
0.0022803864421686248     -0.020939302328494266    2.4005479512873967E-4    -1.2338340908820038E-4
0.0023887072950559926     -0.020738977901573252    3.162894095122991E-4     -1.5941987556216815E-4
0.0025784455719959068     -0.020706885857817096    3.1064190044876835E-4    -1.2757813116461795E-4
-0.014018123039203715     -0.014166405347832943    -2.7179981274342034E-4   8.344849571417693E-5
-0.014111646853329104     -0.014024521260757369    -3.2481351110345017E-4   7.998314362980393E-5
-0.013930600194887625     -0.0139680381939673      -3.346218836042952E-4    1.0930907919262936E-4
-0.014020804680617543     -0.013753023106765634    -2.806141019618866E-4    1.3288976090085528E-4
0.0026651397160672007     -0.02053300405867838     2.2522948104249956E-4    -5.521251317325166E-5
0.0024691259707190203     -0.02054853472866201     2.642701755280709E-4     -1.329493375429911E-4
0.0027197322126952654     -0.020423508294750474    1.1101894831777972E-4    -2.955175218754955E-5
0.002594263224591662      -0.02042153031733164     1.389233953867163E-4     -6.013442517049273E-5
-0.013855296513086188     -0.013758188992302975    -2.642616188566006E-4    9.077460086439315E-5
-0.013969983308250295     -0.013601134304800885    -1.7220233036767808E-4   1.0529624741010474E-4
-0.013826181476179974     -0.013628848873472509    -1.5124376216008E-4      5.299988527726405E-5
-0.013942975012113702     -0.013520415159445014    -9.705614127031118E-5    5.6544453693858184E-5
-0.0018655839619809438    -0.01916007993980948     0                        0
-0.0018510839999999998    -0.019115005             0                        0
-0.0018761474651698671    -0.019156681812262946    -7.045810678022515E-6    -2.1588003379839242E-5
-0.001808958174234689     -0.0191366247707882      0                        0
-0.0018039093333949293    -0.01912678717107256     2.0138018275319513E-5    -1.0222445719471822E-5
-0.00983108794679449      -0.015813749039030378    0                        0
-0.009786013              -0.015828249             0                        0
-0.00982764142958931      -0.01580303510814634     -2.18892763293808E-5     7.142925915578404E-6
-0.009807632781603027     -0.015870374816973128    0                        0
-0.009797764709330414     -0.015875439300491578    -1.0235113064720414E-5   -2.018250071968056E-5
-0.001868419898026688     0.0021535613322944095    0                        0
-0.0018786254655778648    0.0021494197269399367    -3.119281431135021E-5    7.720786735300143E-5
-0.0018510839999999998    0.002110843              0                        0
-0.0018086192403936018    0.0021287910864427285    0                        0
-0.0018043787107884437    0.0021187580909553566    7.57052121343949E-5      3.2203521595613506E-5
-0.0095                   -0.003160757718612126    0.0033037885930606303    0
-0.009354037825748639     -0.0031418765489985463   0.0032410358488028598    -6.179011301809763E-4
-0.0095                   -0.003075003394800429    0.002875016974002145     0
-0.0095                   -0.0037972827688184463   0.0035135861559077684    0
-0.0095                   -0.003922418158591447    0.0028879092070427663    0
-0.009374749845933965     -0.0038370488623947936   0.0033981972300931875    5.767241788605484E-4
-0.009339776093799518     -0.0034881480671844134   0.00475137370266894      3.89883213294371E-6
-0.0095                   -0.0033284054985886387   0.004142027492943193     0
-0.0095                   -0.003562844133703542    0.004685779331482289     0
-0.00932835479259135      -0.0032781854311842024   0.004175549610951452     -5.035502492642998E-4
-0.00933488285826341      -0.003714446031037605    0.004201429384290794     4.4504193516313516E-4
-0.004469792754077008     -0.014130872088215396    0                        0
-0.004427328              -0.014112924             0                        0
-0.004474026984073849     -0.01412085399975029     -3.697002588345875E-5    -1.5704426492149472E-5
-0.0044099921019733115    -0.01415564233229441     0                        0
-0.004399903866911222     -0.014151548342251286    1.5107590040409132E-5    -3.734289185599229E-5
-0.004547089444631742     -0.003                   0                        0
-0.004547089444631742     -0.0030109892346956765   3.051892540566008E-4     1.0154751834685047E-5
-0.0045                   -0.003                   0                        0
-0.004482175463119072     -0.0029567530130610383   0                        0
-0.004471944216873368     -0.002960969890095774    7.794517706244817E-5     1.5517242623542835E-4
-0.004547089444631741     -0.003999999999999999    0                        0
-0.0045                   -0.004                   0                        0
-0.004547089444631741     -0.0039888786037227      3.073349601167612E-4     -1.060708376465038E-5
-0.004482182794140557     -0.004043229199964048    0                        0
-0.004471909957703016     -0.004038995186121818    7.679849330069023E-5     -1.5329945546206202E-4
0.013132408676736606      -0.00971088568489873     1.6799594771694758E-4    -1.0531594523154021E-5
0.013161784268883774      -0.009623091173415173    8.754823512934153E-5     -8.071278138588949E-6
0.013023248263676032      -0.009655596727607019    1.2834836146361403E-4    -3.471272871049126E-5
0.012887748279659772      -0.009961226501439718    2.741719178334209E-4     -8.6812629940055E-5
0.012977283222099841      -0.010174507437279745    2.3209856418724938E-4    -1.0457905725917288E-4
0.013054845949418224      -0.009942696561089238    2.658034090939834E-4     -6.530661315407163E-5
0.012960791596754588      -0.009749341336528881    2.023140605171821E-4     -6.16469855960129E-5
0.012790653082705862      -0.010187776344545678    2.1358973332333888E-4    -7.047623408705109E-5
0.012918190886664505      -0.010351116054936767    1.36893761309995E-4      -8.461898368857848E-5
0.012790520739042811      -0.01032422939102565     1.2250165126089023E-4    -4.464218605055714E-5
0.012891599301712279      -0.010430590034516766    7.562657252941435E-5     -4.371068779566227E-5
0.010466923203196987      -0.004002556421544035    1.6255179420795557E-4    2.02591818343965E-4
0.010457715520065063      -0.004148081468184287    8.295621063954173E-5     1.5725520092663422E-4
0.010577805244899041      -0.004057840213693371    7.654205125561641E-5     9.722316085269062E-5
0.010300204362332383      -0.003919433405370658    1.9186131218670928E-4    3.194167157646116E-4
0.010302061669150181      -0.004125364780469191    1.4287220415290364E-4    2.909725232876327E-4
0.010124071016546226      -0.004007968272146515    1.764456888579298E-4     3.5469147248202217E-4
0.010066502388208193      -0.0038029138034220617   1.2519715921751278E-4    3.3686847961205535E-4
0.009923963011764285      -0.003898271504153174    1.344266246283373E-4     2.7617805563506884E-4
0.009895066144122755      -0.0037174387748295235   4.983243066020449E-5     2.2472807136588403E-4
0.00981793518106919       -0.003678982663593863    3.175955863611941E-5     1.2182037663564407E-4
0.009835338096875998      -0.003810617116518876    7.661894961987524E-5     1.7629303640806992E-4
0.00864341471610506       -0.008142754943200966    0                        0
0.008633436841476607      -0.008137827986025675    9.434769425199665E-6     1.91169366626388E-5
0.008622722               -0.008184661             0                        0
0.008667561033139544      -0.008198086473919229    0                        0
0.008664385480816408      -0.00820869233384716     2.2159574734619718E-5    -6.8280155338730165E-6
-0.0018669189540022075    -0.009157210583429123    0                        0
-0.001849563              -0.009114515             0                        0
-0.0018773149097507714    -0.009152984578880419    -3.167659360349502E-5    -7.843115264981076E-5
-0.0018071001446379796    -0.00913243281892287     0                        0
-0.0018027894882734303    -0.009122217146331048    7.61223697168446E-5      -3.2302494829335205E-5
0.0035511952855104213     -0.010808111068850438    0                        0
0.0035469423420189166     -0.010797843548491856    3.62631018851683E-5      1.4877137694816891E-5
0.003507602               -0.010826168             0                        0
0.003525550088552915      -0.01086863276459905     0                        0
0.0035154734088794063     -0.010872891757691492    1.5985728755305342E-5    -3.785063627905223E-5
0.0036107985387750724     -0.02057459518868679     -2.0259180542733484E-5   -2.309390414476771E-4
0.0037102792664896        -0.020607881033601925    -1.241313050954577E-5    -1.2234369387955938E-4
0.003669030979555428      -0.0204685263927375      -5.160628780613408E-5    -1.8195103541152746E-4
0.002994451861365729      -0.020368368109437027    -1.062153321469132E-4    -1.7344250255676972E-4
0.003021449303442136      -0.020224210620304484    -5.295608578687222E-5    -1.5101307292848768E-4
0.002914062105996213      -0.02034147002584365     -5.6708015565103575E-5   -9.747633029416921E-5
0.0035645999097981603     -0.020423557578447816    -8.240455642954742E-5    -2.7219220159952926E-4
0.0033990784526897865     -0.020503754513183516    -8.650717081604187E-5    -3.327437171756987E-4
0.003360321769113975      -0.020330907847760107    -1.1180488894666387E-4   -3.4151352263711636E-4
0.003147000729340579      -0.020419410337193564    -1.3465315636378573E-4   -2.8309388970810845E-4
0.003150604100077054      -0.020252637363265033    -9.133146125204042E-5    -2.6609420858230256E-4
0.005208427039030378      -0.016229927946794488    0                        0
0.005222927               -0.016184853             0                        0
0.005197876663683799      -0.016226534043049294    -7.147909694855682E-6    -2.1915133369044757E-5
0.005265052816973127      -0.016206472781603025    0                        0
0.005270087689906102      -0.016196662405124462    2.0405714809946147E-5    -1.0352181442378041E-5
0.009751109491413364      -0.01757886708583515     2.1181979255331142E-4    -4.98328077375294E-5
0.009793735315191635      -0.017493372980130553    1.1098576752679213E-4    -2.940973681385239E-5
0.00965211041343181       -0.017501177895479055    1.5437179175030683E-4    -7.019361618565469E-5
0.009552953476395013      -0.017596116619551693    2.5253140374953284E-4    -1.2676200744019106E-4
0.009644989983137535      -0.0177917097162802      3.1918735010048616E-4    -1.3472445606900607E-4
0.009478751104216058      -0.01778484953759685     3.234880045251827E-4     -1.605717635261717E-4
0.009538870474861703      -0.018004552346725256    2.698815879229654E-4     -1.735177135561724E-4
0.00935513375536045       -0.018000202975634507    2.496546866168578E-4     -1.2802414651870507E-4
0.009455691348309831      -0.01817138372750593     1.5913331382220056E-4    -1.331095188627784E-4
0.009315048529010026      -0.018129200603852782    1.3951555525917598E-4    -7.385209039903297E-5
0.009415139634680884      -0.018252717815253533    8.673587053510563E-5     -6.972168658328394E-5
-0.0032954302826755447    0.016366261509906832     -2.6815965616385943E-5   7.439988803412728E-5
-0.0033420345051328256    0.01625140911719754      -5.8280651045335655E-5   1.6247020362795893E-4
-0.003239509338097543     0.016190344950120606     -3.0231023161609856E-5   8.696278015364542E-5
-0.0035645098107363526    0.016154062595894664     -1.070316767517097E-4    3.1581696862426463E-4
-0.003428191588188188     0.016129941002465547     -8.973609474300635E-5    2.5812899079580244E-4
-0.0032937534400682444    0.016078289033188583     -5.878643859956125E-5    1.7361315050100142E-4
-0.003184191456731603     0.016014223756708787     -2.9136660227270597E-5   9.085239055622641E-5
-0.003695346019389118     0.016077732698543498     -1.0602621767681065E-4   3.289813948987976E-4
0.0021808860021132956     0.014090658396638195     8.381259186926369E-5     3.9051659280633656E-5
-0.011761995738444109     0.012860053748591744     -3.887632171755532E-5    8.337741479993393E-5
-0.0035262366548383128    0.01601294855046124      -1.0683865170323137E-4   3.1700466057142397E-4
-0.0033767791870645213    0.015961056409632565     -8.713694644398886E-5    2.619284661902821E-4
-0.0032303633635462833    0.015898443512403205     -5.5895956655275884E-5   1.7242591014468694E-4
-0.003129019332966087     0.015838049003341882     -3.04145713448606E-5     9.36581161860837E-5
-0.003692723633317574     0.01590025057416018      -1.0236256898339106E-4   3.173765939190701E-4
-0.0038365690756172696    0.015970295655977743     -8.515289503053382E-5    2.699352128402643E-4
-0.003980163809420534     0.01603389338352018      -5.508704113466915E-5    1.8236491367410273E-4
-0.004101528379270747     0.01609679124408128      -2.349060350362248E-5    7.934907894972726E-5
0.0021419138689381676     0.013934738222162018     2.0140430762686674E-4    9.622501883016023E-5
0.0020160554324945997     0.014007638813054843     9.11375280999523E-5      4.431560397428069E-5
-0.011615367721921935     0.012822733907817192     -9.320529998178935E-5    1.9480330589756036E-4
-0.011678852285307434     0.012695284800254248     -4.424022680023118E-5    9.092139977980084E-5
0.009255004452118062      0.011160290853664205     8.402703142136097E-5     3.917469115157216E-5
-0.0034689043076150893    0.015854039237823768     -1.0410381929147821E-4   3.153942562281666E-4
-0.003313225768131008     0.015792677121453037     -8.403025334953632E-5    2.582547583904404E-4
-0.0031698846988317394    0.015717421543468314     -5.563604920506014E-5    1.7117040728024382E-4
-0.003073077361225264     0.015662119746292315     -3.056129235426215E-5    9.475697228326076E-5
-0.0036417301497139523    0.015722818073204005     -1.0379763245098619E-4   3.148240374302894E-4
-0.0037851838816001585    0.015792061911979603     -8.627588041460083E-5    2.648679680310356E-4
-0.00392729962505901      0.0158572379896689       -5.74070800097492E-5     1.7899813973716168E-4
-0.004042472320685391     0.015922173159248182     -2.8041403294631158E-5   8.985120049555583E-5
0.0019655660741646768     0.013878211105723006     1.7601089903850805E-4    8.777988067331726E-5
0.0020549429356729937     0.013803402796194474     2.482073453776376E-4     1.2324895661786157E-4
0.0018513028472645684     0.013924448511007418     9.06897124892253E-5      4.664754853958552E-5
0.0021954605739232646     0.013756406044781129     2.984767142851512E-4     1.4848558107902684E-4
0.0022987996477649777     0.01360373083679705      3.040198874128369E-4     1.5570738269970043E-4
-0.011549272042428421     0.012643519832085596     -8.741143047591442E-5    1.749761550090245E-4
-0.011474593682884773     0.01273653311978934      -1.2308386154699267E-4   2.482038395224426E-4
-0.011595537033031914     0.012530594838814762     -4.653926109692532E-5    9.037450347321954E-5
-0.011426174949919746     0.012875381163943095     -1.4804977500507038E-4   2.9905879338843557E-4
-0.011273487671047976     0.012980902914601928     -1.5632208340228865E-4   3.0477890211411525E-4
-0.011111217248923846     0.012980940912633488     -1.2935369665166435E-4   2.4637131717583557E-4
-0.011034774304149645     0.0130955908420214       -8.550095993047788E-5    1.5943032955960452E-4
-0.011011209786588773     0.013234628153999173     -4.016108958800629E-5    7.347999364483398E-5
-0.01403675517081269      0.007382355266172231     -7.689822491764769E-5    -2.7979829902831912E-5
0.009216956789849056      0.011014078818755066     1.9512387885084974E-4    9.315866448573626E-5